  3.1218832e-04   9.5626613e-04
 -1.2709530e-03   8.4303960e-04
  8.3466396e-02   4.5864817e-04
  3.4770135e-02   4.5873012e-04
 -4.9456409e-03   7.0932240e-04
  2.5482425e-02   1.0647617e-03
  6.3312398e-03   1.3495717e-03
  1.3577036e-02   8.1661728e-04
  4.1873027e-02   9.6352177e-04
 -1.5432782e-02   4.1686001e-04
 -1.0992418e-02   1.1218130e-03
 -6.8428613e-02   1.1638736e-02
  3.0372757e-01   8.0448538e-03
 -6.1366666e-02   7.3425961e-03
 -2.0552402e-02   5.5502737e-03
  3.2999918e-01   4.0044668e-03
 -1.2163787e-01   3.9795269e-03
 -5.8380055e-01   9.1419946e-03
 -3.3445764e-01   7.3931967e-03
 -2.4483219e-01   2.8205586e-03
 -4.7770882e-01   6.9745188e-03
 -6.7221984e-02   1.0387709e-02
 -6.8985894e-03   7.9105496e-03
 -1.0827011e-02   6.1479239e-03
  3.0350784e-02   7.5854640e-03
  2.6711938e-01   4.5386297e-03
  6.9963649e-02   7.1558929e-03
 -5.4586661e-01   8.1888884e-03
 -3.5349771e-02   1.0113128e-02
 -1.5212224e-01   8.4654046e-03
 -4.4101727e-01   9.3702376e-03
 -2.0864713e-01   1.9692674e-02
 -1.6577742e-01   8.2865451e-03
 -1.6354877e-01   1.4265785e-02
 -2.5068262e-01   1.0325372e-02
  3.1366903e-01   2.5695632e-03
  2.5354707e-01   9.5705781e-03
 -6.0481554e-01   8.5409386e-03
 -2.3858169e-01   1.0700389e-02
  1.7591193e-01   8.3986977e-03
  1.2280836e-01   4.0994659e-03
 -2.5056738e-01   3.3922728e-02
 -7.5271547e-01   3.3555266e-02
 -2.5980926e-01   2.0821102e-02
  3.9140925e-01   1.1053548e-02
  4.0916272e-02   4.7083660e-03
  5.0074947e-01   1.8407408e-02
 -1.0099399e+00   6.4145522e-03
 -7.0710915e-01   1.0295288e-02
 -2.0536442e+00   2.5758801e-02
  1.0797031e+00   4.8760823e-03
 -1.2561837e-01   1.8237833e-02
 -4.3273438e-03   2.1626730e-02
  5.1122960e-03   1.0707408e-02
 -1.0686902e-02   1.6385607e-02
  1.4785856e-02   1.1368263e-02
  1.4036577e-02   2.6169853e-02
  1.1587963e-01   2.7805602e-02
 -4.6504294e-03   2.4830082e-02
 -4.4848375e-02   2.2105156e-02
  1.6656410e-02   2.3988096e-02
 -1.5457276e+00   7.2288312e-02
  2.4175505e-01   5.8343582e-02
 -1.1135987e+00   9.0939589e-02
 -2.3067632e+00   7.2427362e-02
 -1.0903991e+00   9.1977842e-02
  7.4088824e-01   9.6156679e-02
 -2.2157931e+00   7.9678044e-02
  1.4027170e+00   4.4167992e-02
  8.2427120e-01   8.9463368e-02
  4.4061938e-01   4.4827454e-02
  1.1179498e+00   5.4737445e-02
  8.8350475e-01   8.9505561e-02
  1.1759586e+00   9.6453585e-02
  3.0026570e-01   9.3974940e-02
 -1.2661250e+00   9.9602692e-02
 -6.9592345e-01   8.1463479e-02
 -1.3102565e+00   8.7573238e-02
 -5.4115343e-01   9.9748038e-02
  2.1266568e+00   8.2682058e-02
 -5.1237333e-01   7.0183523e-02
 -8.7695307e-01   8.5497230e-02
  1.0618867e+00   8.9462541e-02
  3.8460916e-01   9.6559443e-02
 -4.4007042e-01   9.6053109e-02
 -1.3901396e+00   9.1488399e-02
  1.3565652e+00   8.7708622e-02
 -3.7673956e-01   7.6360017e-02
  1.1974854e+00   8.4539227e-02
  2.5083683e+00   6.6053987e-02
  2.3881779e+00   1.0000000e-01
 -5.5738592e-01   9.0010874e-02
  1.5661727e+00   7.5132556e-02
 -1.3515085e+00   8.8569723e-02
 -3.5018647e-01   9.0900481e-02
 -2.6981753e-01   9.8653592e-02
  1.0977788e+00   7.9191394e-02
  3.0828674e+00   8.0490030e-02
 -9.7468591e-01   8.5078649e-02
  5.6837004e-01   9.1018982e-02
 -7.9648209e-01   7.5710438e-02
 -4.6420169e-01   8.0782294e-02
  2.0487947e+00   8.6608902e-02
  1.0507600e+00   6.3335508e-02
  3.5151067e-01   9.0332873e-02
 -8.3038312e-01   5.7127211e-02
  1.4262450e-01   6.6549547e-02
  7.9614349e-02   9.8147631e-02
 -1.4912885e+00   7.8352243e-02
 -3.4586030e-01   7.4342206e-02
  2.6856751e+00   6.9679961e-02
 -1.2725784e+00   5.8402017e-02
 -1.4335202e+00   7.2238758e-02
 -6.3506472e-01   8.6538836e-02
  3.1966230e-01   8.6953960e-02
 -4.5443922e-01   1.0000000e-01
 -1.6092750e+00   9.4640508e-02
  8.7081301e-01   9.4126783e-02
  1.4072331e+00   8.5860923e-02
 -2.3941538e+00   9.2280157e-02
 -2.1265180e-01   8.6013466e-02
  3.0329379e-01   8.4588528e-02
  6.6008723e-01   9.7158059e-02
 -8.9802039e-01   8.6646050e-02
 -1.7402146e+00   8.5840434e-02
 -2.8295279e-01   5.3544197e-02
 -4.5335099e-01   6.9340803e-02
 -2.1572223e+00   8.9744344e-02
 -1.1246001e+00   7.0789501e-02
 -1.1211975e+00   7.0782848e-02
 -1.5112838e+00   6.7991465e-02
 -2.9252046e-01   6.4931944e-02
 -8.3420306e-01   9.2497483e-02
 -1.2001253e+00   9.9234059e-02
  2.9397103e-01   6.8716474e-02
  8.0650896e-02   9.6425235e-02
  2.1002217e-01   9.9203706e-02
  1.9794165e+00   8.4763572e-02
  3.6297575e-01   6.4764634e-02
 -2.5604680e+00   9.0900660e-02
 -6.3428247e-01   8.0131985e-02
  1.2626799e+00   9.5342189e-02
 -2.2757344e+00   6.2548235e-02
  1.0739713e+00   8.4834307e-02
 -1.2063800e+00   8.6647607e-02
 -1.4708587e+00   8.5989095e-02
 -7.2445553e-03   6.5432385e-02
 -2.1066644e+00   6.8016499e-02
 -2.1098056e+00   9.5289059e-02
  1.4434832e+00   9.1012485e-02
 -1.6983448e-01   7.2564781e-02
 -9.9074602e-01   6.9958679e-02
  6.2371904e-01   7.8897990e-02
  2.7643564e+00   9.5527254e-02
  8.2883976e-02   6.5967657e-02
  7.3136199e-01   8.1972197e-02
  1.7915305e+00   9.2396416e-02
 -2.6401498e+00   9.4346844e-02
 -8.9494538e-01   7.5357877e-02
  2.4928472e+00   8.6446181e-02
 -5.2980846e-01   8.0700196e-02
  8.4628510e-01   7.7562526e-02
 -1.3574715e+00   8.4076211e-02
 -1.8051044e+00   8.3488189e-02
 -1.5399549e+00   9.3217537e-02
  5.2529830e-01   8.2127526e-02
  9.0109253e-01   8.9143537e-02
  1.8751855e-01   9.3865715e-02
 -1.2644645e+00   8.2447723e-02
  5.5899596e-01   9.7930394e-02
  8.8516802e-01   7.5537108e-02
 -6.3500755e-02   9.3108341e-02
 -1.7917640e+00   7.8293644e-02
  3.3061194e-01   8.4181830e-02
 -1.3895266e+00   9.4864689e-02
 -2.0933828e+00   9.2951454e-02
 -1.0162268e+00   6.1972216e-02
 -1.1012267e+00   9.9827476e-02
 -3.7532970e-01   6.9117144e-02
  2.5179236e+00   8.9576453e-02
 -3.3690833e-02   9.2729822e-02
 -9.6831393e-01   9.7576052e-02
  1.1213586e+00   8.3803400e-02
  1.6992052e-01   6.2445864e-02
 -1.5432857e-01   7.2030373e-02
  1.8808852e+00   6.3914925e-02
  1.0999388e+00   9.1866724e-02
 -3.8772311e+00   9.1065310e-02
 -6.6550666e-01   9.7592376e-02
 -1.7756546e+00   9.7315714e-02
 -2.5600550e-01   6.5381095e-02
 -1.1397756e-01   7.9317488e-02
  6.6357899e-01   7.6875851e-02
 -1.9046602e-01   9.2368439e-02
 -3.5247460e-01   8.5701108e-02
  8.4440768e-01   9.4847798e-02
 -1.2764100e+00   5.6731790e-02
  1.3937548e+00   8.6233631e-02
 -3.3109403e-01   9.1546163e-02
 -2.1067295e+00   8.4027715e-02
 -1.0570792e+00   5.8990672e-02
 -1.4304192e-01   8.9139782e-02
  7.7792090e-01   7.4465692e-02
 -7.0901495e-01   8.6118639e-02
  5.9986789e-02   6.4204313e-02
  6.6177946e-01   8.2836248e-02
  1.5981424e+00   9.8385140e-02
  4.3828270e-01   9.5214039e-02
 -4.1371685e-01   9.4421729e-02
 -2.6708293e+00   9.6833818e-02
  5.1650709e-01   7.1022056e-02
 -4.2340860e+00   9.2026502e-02
 -1.2707995e+00   8.9525975e-02
  2.1782300e+00   9.3023673e-02
  7.6707757e-01   9.4254531e-02
  5.5386424e-01   8.0476426e-02
  3.1004539e-01   7.9335101e-02
  3.7763803e+00   7.8956157e-02
 -1.6649888e+00   9.1576859e-02
 -8.1087184e-01   6.4306796e-02
  6.2094730e-01   9.9540614e-02
 -1.2402155e+00   7.9760343e-02
  2.6138139e+00   9.3049400e-02
 -1.9551624e+00   9.1066428e-02
 -2.9491148e+00   6.2478703e-02
 -9.6458524e-01   8.5025862e-02
  2.4694941e+00   8.1041455e-02
 -1.1033109e+00   9.3586333e-02
 -9.7938985e-01   9.7753577e-02
 -2.9024130e-01   5.9378855e-02
 -6.5513790e-01   8.1316747e-02
 -1.8206221e-01   8.4135227e-02
 -1.4333438e+00   8.5281447e-02
  8.3869356e-01   9.6603878e-02
 -2.0194723e-01   8.5283861e-02
 -2.2640686e+00   6.6984914e-02
  1.1966632e-01   8.1578828e-02
 -2.4034531e+00   8.3241880e-02
  1.3852807e+00   9.9404491e-02
 -9.6533865e-01   8.3192468e-02
  1.8594600e-01   7.4866325e-02
 -1.7158577e+00   9.3698367e-02
 -1.5841377e-01   7.4102335e-02
  6.6179389e-01   7.5313017e-02
  1.5095577e-01   7.2793439e-02
 -2.6973045e+00   1.0000000e-01
 -1.7867488e+00   7.9458028e-02
 -6.2401158e-01   8.3118819e-02
 -1.9317746e+00   4.4222057e-02
 -7.5971216e-01   6.7831509e-02
 -7.7901687e-03   9.5212378e-02
 -1.6333358e+00   7.3737271e-02
  2.1338196e-01   8.4065557e-02
 -5.6166840e-01   4.3062247e-02
 -1.3842516e+00   6.7535125e-02
 -2.7633569e+00   8.9755908e-02
  8.5641479e-01   6.9795974e-02
  2.6003611e-01   8.6028449e-02
  7.5549620e-01   9.7778983e-02
 -1.5278901e+00   8.7277837e-02
  6.0911638e-01   7.8799754e-02
 -2.1258748e+00   9.3673788e-02
 -1.1800811e+00   9.2505261e-02
  1.9870987e+00   8.8483721e-02
 -1.1402494e+00   9.3489282e-02
  3.0045453e-01   7.1781836e-02
 -6.7429394e-01   9.5807903e-02
 -2.4595253e-01   7.3222749e-02
 -1.0797404e+00   8.2003549e-02
 -2.0587018e+00   9.3738474e-02
 -4.8561841e-02   9.2507564e-02
 -3.3721876e-01   9.9588551e-02
 -5.8331519e-01   9.8679401e-02
  1.6035961e+00   9.1019131e-02
  5.0128740e-01   8.8368468e-02
 -1.7316153e-02   8.7737896e-02
 -9.3580347e-01   7.5039506e-02
  1.8320346e+00   8.5125044e-02
 -1.8217632e-01   9.5698699e-02
 -1.7598219e+00   9.7870037e-02
  6.8438256e-01   8.6166553e-02
  1.6624328e+00   6.8065658e-02
 -1.2748170e-01   6.2626407e-02
 -2.7777314e+00   8.1870288e-02
 -2.3283461e-01   7.2157353e-02
 -3.4636673e-01   9.4860531e-02
  3.2557430e+00   8.3818398e-02
 -1.6300129e+00   9.2867903e-02
 -1.1613041e+00   8.2049757e-02
  5.0848049e-01   8.3000317e-02
 -5.7125664e-01   9.0899877e-02
 -2.0633425e-01   7.1456656e-02
 -2.3678422e+00   7.5237773e-02
 -1.2832701e+00   9.2381276e-02
  3.6463541e-01   7.4916877e-02
  1.4105771e+00   9.5176280e-02
 -9.6731997e-01   8.1796005e-02
  1.3892975e+00   8.2311332e-02
  6.7257231e-01   7.0142165e-02
 -1.5010903e+00   7.6132879e-02
  2.3123181e-01   9.9542089e-02
  5.7795429e-01   9.3707003e-02
  1.2302314e+00   6.9957219e-02
 -1.1251769e+00   9.9049047e-02
 -6.2872809e-01   9.6398614e-02
  4.4735742e-01   9.1471441e-02
 -2.9794619e+00   8.8444665e-02
 -1.1894519e+00   8.0344185e-02
  2.7319446e-01   7.9595610e-02
  3.7825370e-01   6.9741301e-02
  4.5308939e-01   7.3766269e-02
 -8.7729496e-01   9.9381424e-02
 -6.5144795e-01   7.9753280e-02
 -1.6565003e-01   8.4535711e-02
 -1.8405355e+00   8.0155082e-02
 -8.4739316e-01   7.6408923e-02
 -3.9284903e-01   9.1804698e-02
  1.9547583e+00   8.6467691e-02
  7.8264844e-01   8.7142915e-02
  7.0313823e-01   9.1152906e-02
 -8.1145507e-01   9.4845250e-02
 -2.1052933e+00   8.3581202e-02
 -7.2222489e-01   9.9354193e-02
 -1.7163967e+00   9.4363108e-02
  5.0352484e-01   5.7969756e-02
  1.3329716e+00   8.9305922e-02
  8.4402275e-01   8.3856441e-02
 -4.2790151e-01   6.7891888e-02
  4.5702940e-01   9.5811278e-02
  1.0317600e+00   7.7515118e-02
 -3.5583892e-01   5.7576511e-02
 -1.8545797e+00   9.4425723e-02
 -1.1158967e+00   6.2880702e-02
 -6.1425680e-01   8.1596546e-02
  9.7783691e-01   7.2661415e-02
 -2.8860688e+00   6.7334346e-02
 -1.0480169e+00   6.1911069e-02
 -9.6627790e-01   9.3746305e-02
 -1.4066813e+00   9.2159338e-02
  4.9152467e-01   7.9802573e-02
 -8.8351423e-01   7.0695810e-02
 -1.0623064e+00   6.3339949e-02
  1.2227066e+00   8.4803216e-02
 -2.1336033e+00   9.0328373e-02
  1.4823045e+00   6.9181450e-02
 -1.9645137e-01   9.9000275e-02
 -1.2041810e+00   7.9190329e-02
  7.3794580e-01   8.5174605e-02
 -1.1113632e+00   9.4036616e-02
 -9.3174264e-02   7.9639249e-02
 -4.1541225e-01   9.9764474e-02
 -1.1141852e+00   9.7825684e-02
  2.3044863e+00   8.8466622e-02
 -1.6505661e+00   8.0770515e-02
 -2.0902687e-01   9.0759993e-02
  1.1769887e+00   8.6556725e-02
 -2.9277325e+00   8.5542306e-02
 -2.2260010e+00   9.4876848e-02
 -8.7620270e-01   8.7012969e-02
  1.5701405e+00   9.0587936e-02
 -6.8886280e-01   7.6527499e-02
 -1.9301154e-01   8.4081218e-02
  1.3286817e+00   8.7130040e-02
  1.4599137e+00   9.0934083e-02
 -4.3941006e-02   7.1590580e-02
 -2.2367299e-01   9.5077522e-02
  3.9321655e-01   1.7807333e-02
 -2.8192711e-01   1.4016915e-02
  3.7999704e-01   8.8051734e-03
  3.3786011e-01   1.1689146e-02
 -9.9206291e-02   1.5093402e-02
  5.2865732e-02   2.1836568e-02
 -1.5836227e-01   2.9824784e-02
 -1.3348584e-01   5.2078050e-03
  2.3736022e-01   7.6993690e-03
  3.3908507e-01   2.2815177e-02
  1.8165196e-01   1.5822275e-02
 -2.1755636e+00   8.0442213e-02
  7.7826470e-01   8.7310493e-02
 -4.7947821e-01   5.6625284e-02
  2.5168948e+00   9.2079304e-02
 -2.3586762e+00   9.2725351e-02
  8.8978715e-02   6.8385713e-02
 -4.5025536e-01   9.3061350e-02
 -1.1763100e-01   8.3559968e-02
 -1.6730745e-01   3.3164691e-02
 -1.9063345e-01   7.6662540e-02
  2.2200260e+00   9.2764132e-02
 -4.4678435e-01   6.5803684e-02
 -1.1659343e+00   7.4958980e-02
  3.0927762e-01   8.6577334e-02
  1.2871225e+00   6.9146462e-02
  7.2678292e-01   7.6332621e-02
  5.6812668e-01   9.2141874e-02
 -1.3870242e-01   8.0595754e-02
  2.8915029e+00   5.1344089e-02
 -1.0214667e+00   8.3743535e-02
  2.0641436e-01   8.4260575e-02
  1.4446125e+00   8.4177256e-02
  1.7595473e-01   5.3864192e-02
  1.6995335e+00   8.0875367e-02
  4.1900143e-01   8.8083036e-02
 -2.4144521e+00   6.7948923e-02
 -9.5286196e-01   8.3677314e-02
  1.9111636e-01   5.1351693e-02
 -1.1049616e+00   2.8442126e-02
 -1.0377990e+00   9.0013899e-02
  9.1593087e-01   8.1899896e-02
 -1.9379082e+00   8.8248834e-02
 -8.2341486e-01   6.2355638e-02
 -8.2353657e-01   9.3554944e-02
  2.6760152e-02   6.6441856e-02
  2.1398918e-01   9.7075872e-02
  8.9821285e-01   6.7094475e-02
  1.0019596e+00   4.5846146e-02
  8.6730486e-01   5.7180054e-02
  1.6052812e+00   8.8872455e-02
  5.7651323e-01   8.0548868e-02
 -7.1860820e-01   7.9690784e-02
 -8.6482835e-01   7.3856644e-02
 -1.7321990e+00   6.9672272e-02
 -4.8933935e-01   6.8622269e-02
  2.8365770e-01   7.3919930e-02
  5.7093066e-01   9.6847557e-02
 -1.3980373e+00   8.1648566e-02
  1.2074354e+00   6.2333740e-02
 -7.9900813e-01   9.3927205e-02
 -2.7871380e+00   6.8453014e-02
  1.0609294e+00   8.8904098e-02
  1.4244400e-01   6.8768933e-02
  3.2196769e-01   6.9659092e-02
 -2.1587140e-03   6.4034767e-02
 -1.3728217e-02   7.7528052e-02
  1.2829778e+00   9.9306554e-02
 -4.3929189e-01   7.2394177e-02
 -2.4756846e+00   8.9987278e-02
 -4.6838403e-01   6.9487460e-02
  6.6447651e-01   9.4030961e-02
  6.3701195e-01   8.5157908e-02
 -6.5703452e-02   8.1944391e-02
 -1.9066270e-01   8.3120145e-02
 -1.4306849e+00   7.6908812e-02
 -2.8140724e-01   7.7029914e-02
  2.3243965e-01   9.1895543e-02
 -1.4088337e+00   9.2100456e-02
 -7.5369614e-01   6.8649240e-02
 -2.1987584e+00   9.2143416e-02
  1.3676997e+00   9.8332129e-02
  2.8495152e+00   8.9465015e-02
  1.2021421e-02   9.6291021e-02
 -4.7916117e-01   9.7815864e-02
 -1.4488215e+00   9.6890412e-02
  4.3548980e+00   8.7777190e-02
 -3.1698921e+00   9.7197458e-02
 -2.1456652e+00   8.5449569e-02
 -1.3447741e-01   7.5426169e-02
  2.0923407e+00   7.9925731e-02
  6.9044548e-01   7.9529770e-02
 -1.4013273e-01   7.7434853e-02
 -3.3732343e-01   5.7234954e-02
  2.7904236e-01   9.9025056e-02
 -1.2617993e+00   8.4455371e-02
 -2.1365650e+00   7.4605510e-02
  2.7136295e+00   8.8521421e-02
 -2.4105463e+00   8.4251031e-02
  1.3238232e+00   9.6937224e-02
 -1.0054599e+00   9.4839461e-02
 -1.0440984e+00   9.5626779e-02
 -3.0532603e+00   8.0965206e-02
 -1.8941063e+00   8.3956622e-02
 -9.7208041e-01   9.8056719e-02
  4.6117288e-01   7.6056868e-02
  2.3052797e+00   7.7366680e-02
 -5.1183462e-01   7.5826079e-02
 -2.0805071e-01   8.0191150e-02
 -2.8248656e-01   9.3956172e-02
  9.3288809e-02   7.5890236e-02
  1.2726023e+00   8.4991112e-02
  9.0722567e-01   8.6032093e-02
  8.0495977e-01   8.2779944e-02
 -1.3712465e+00   8.4805585e-02
 -4.1983038e-02   6.5461211e-02
  2.6955244e-01   6.8770118e-02
 -4.2253432e-01   9.2365481e-02
 -1.9405479e+00   9.1741614e-02
 -1.2415515e+00   9.6004270e-02
 -9.4995432e-02   6.5255255e-02
 -2.0710292e-01   7.4770749e-02
 -6.0016400e-01   4.2433906e-02
 -8.0072947e-02   3.6145393e-02
 -9.5419699e-01   2.8627947e-02
 -1.2694756e+00   3.7179071e-02
  1.0033937e+00   3.5262793e-02
 -1.0017755e-01   5.4582573e-02
  3.8057104e-01   8.4754713e-02
  1.7216584e-01   1.3933588e-02
 -7.3135948e-01   2.2672124e-02
 -7.0067447e-01   4.1340094e-02
 -6.7215699e-01   5.3936388e-02
 -1.5577049e+00   7.5049579e-02
 -1.0616363e+00   9.6877940e-02
  1.1653794e-01   8.0229945e-02
 -1.5543662e+00   8.6781733e-02
  2.4285874e+00   9.3783170e-02
 -7.7342314e-01   9.2228748e-02
 -1.9450924e+00   9.8736122e-02
  7.4228656e-01   7.2973862e-02
  3.7536624e-01   8.4629588e-02
 -2.0435575e-01   9.5597044e-02
 -6.8820381e-01   8.5585929e-02
 -4.1901487e-01   7.6621115e-02
  8.0362135e-01   6.8210170e-02
  9.4700104e-01   8.8940382e-02
  2.6773143e+00   9.6531890e-02
  5.8540028e-01   9.5456868e-02
  3.2011709e+00   8.2879595e-02
  5.6995732e-01   8.0546066e-02
 -2.1845446e+00   5.7151739e-02
  9.8935610e-01   7.8854814e-02
 -6.3949019e-01   9.8150946e-02
  1.6571918e+00   9.4721466e-02
  7.9650462e-01   9.0296336e-02
 -7.1678007e-01   9.1973618e-02
 -6.0688430e-01   7.3485516e-02
 -8.3728805e-02   8.9635603e-02
  1.7960559e-01   7.0021339e-02
  3.3558711e-01   7.7981286e-02
  1.7054201e+00   6.4449929e-02
  2.1369884e+00   9.0652682e-02
 -4.6181577e-01   6.8729296e-02
  3.0750352e-01   8.8733748e-02
 -2.9232757e+00   7.9888664e-02
 -1.4970502e+00   8.6584970e-02
 -2.5235140e-01   8.0773637e-02
  3.2507434e+00   9.2086591e-02
  1.4303939e-01   8.5743837e-02
 -1.0159519e+00   8.9669526e-02
  4.3180737e-01   9.1397241e-02
 -6.1089480e-01   8.7543063e-02
 -4.2769542e-01   8.4526613e-02
  8.1854552e-01   6.8412572e-02
 -2.4904262e-01   8.3666861e-02
 -1.4874206e+00   7.6001599e-02
  1.4528856e+00   6.9701865e-02
  3.2947750e+00   8.3428137e-02
 -1.6096097e+00   8.0122679e-02
 -8.6243343e-01   8.7963544e-02
 -4.1143391e-01   6.1410289e-02
 -9.8722070e-01   6.6209860e-02
 -1.3408716e-01   9.2270277e-02
 -7.5757194e-01   7.4919291e-02
 -3.0893883e-01   9.7815543e-02
 -9.2399490e-01   9.7202137e-02
  4.9166790e-01   7.0069015e-02
  1.5361372e+00   8.0272608e-02
 -1.7275697e-01   8.3477356e-02
  1.9398715e+00   6.6238850e-02
 -4.6576750e-02   7.4200891e-02
 -1.0967746e+00   8.6515203e-02
  1.0966187e+00   7.7386886e-02
  3.7608540e+00   8.3149575e-02
  2.0359397e-01   9.5899031e-02
  4.8763028e-01   7.1802422e-02
  1.9766629e+00   6.8731710e-02
  6.3925171e-01   8.6243071e-02
  2.5281560e-01   6.5671884e-02
  3.5645366e-01   8.6247750e-02
  9.4006056e-01   7.4396141e-02
  1.8220164e+00   7.6596752e-02
 -2.3425176e+00   9.6333265e-02
  2.1708040e+00   9.7845018e-02
 -1.7949420e+00   6.4369135e-02
 -2.8932738e+00   7.7898033e-02
 -1.4628022e+00   9.7810745e-02
 -8.9900231e-01   9.0178825e-02
  3.6536646e-01   7.2293565e-02
  2.0225444e+00   9.8718598e-02
 -3.8450766e-01   9.0924017e-02
  7.7685076e-01   9.9303864e-02
  7.1951723e-01   9.9833325e-02
 -2.0331261e+00   9.9649660e-02
  2.6974676e+00   8.6419791e-02
  7.3099083e-01   9.7833805e-02
 -1.1524997e+00   9.3184784e-02
 -5.3210217e-01   8.4840588e-02
  1.4463560e-01   9.1954812e-02
  1.3558177e+00   8.4801435e-02
 -9.4264400e-01   8.5430242e-02
 -4.2099082e-01   6.9194227e-02
  1.3516548e+00   8.1900910e-02
 -9.8574209e-01   8.5569747e-02
  1.5467811e+00   8.7745778e-02
  3.9647990e-01   6.7784630e-02
  1.6855370e+00   9.4157860e-02
  4.3707108e-01   9.9169038e-02
  3.2478113e+00   8.3979271e-02
 -2.5001332e-01   8.2267314e-02
 -5.1658481e-01   8.8942617e-02
  7.2726184e-01   8.6537018e-02
 -3.7094441e-01   6.6148929e-02
 -1.9037271e+00   8.7638602e-02
  2.4980648e+00   7.7750035e-02
 -7.3235953e-01   9.3104497e-02
 -2.9814097e-01   5.8370110e-02
  1.5911050e-01   8.3400451e-02
  2.8224969e-01   7.3102906e-02
  7.1856543e-02   8.9788556e-02
  8.9892529e-02   6.8635754e-02
  8.8084871e-01   9.7441837e-02
  1.1426426e+00   9.2559695e-02
 -2.1309483e+00   9.1140129e-02
 -1.4538555e-01   6.4536154e-02
 -3.3074200e-01   9.8722436e-02
  1.7826779e+00   8.4176607e-02
 -1.7975479e+00   7.6877095e-02
 -4.8955981e-02   8.7503940e-02
  5.0892740e-01   7.0211239e-02
 -1.3714153e+00   7.4878782e-02
 -2.7156253e+00   8.3198711e-02
  1.3696415e+00   9.5651478e-02
 -6.3106489e-01   8.5511826e-02
 -4.0962479e-01   8.7250784e-02
 -1.1430213e+00   7.3601797e-02
 -1.4095094e+00   7.5347304e-02
 -1.1629415e+00   6.4687341e-02
 -4.6716601e-01   8.9009874e-02
  3.0670440e+00   9.0841800e-02
  1.7454536e-01   6.8651110e-02
  2.6406911e-01   6.9702305e-02
 -1.1861349e+00   7.3519073e-02
 -6.8555236e-01   8.6649209e-02
  1.1627654e+00   9.9842265e-02
  1.0780969e-01   9.5822535e-02
  9.8081356e-01   8.4926762e-02
  2.9088998e+00   9.2267066e-02
  2.6299143e+00   8.1486173e-02
 -3.6294338e-01   8.8093571e-02
 -1.7060563e-02   8.2977086e-02
  1.3893542e+00   9.2716619e-02
  2.6318338e+00   9.8516300e-02
 -1.2298661e+00   9.3078882e-02
 -5.4260755e-01   7.3843226e-02
 -8.7316829e-01   8.5752957e-02
  6.3908625e-01   9.0301536e-02
  7.5429893e-01   8.6035140e-02
 -3.4781963e-01   7.6339461e-02
 -1.2490109e-01   5.6623615e-02
 -8.7486970e-01   8.4207147e-02
 -2.4443243e+00   9.6080318e-02
  1.6072940e+00   9.4328426e-02
  9.6752489e-01   8.0128133e-02
  5.2507108e-01   9.3920492e-02
 -1.1438900e+00   6.3885242e-02
  2.2228467e-01   9.3862630e-02
 -3.7958902e-01   9.1946676e-02
 -2.2960205e+00   9.3256637e-02
 -1.2732606e-01   8.9305423e-02
 -1.6968625e+00   8.5416205e-02
  6.3060224e-01   9.7093567e-02
  1.4429467e+00   8.2374439e-02
  1.7830520e+00   8.5659519e-02
 -2.4533393e+00   6.6398285e-02
 -2.6505632e+00   7.7191368e-02
 -6.5280958e-03   8.8073827e-02
 -2.2781985e+00   9.6699938e-02
  2.5513968e+00   9.5866576e-02
  1.5763715e-01   8.6339995e-02
 -2.4703567e+00   8.1921242e-02
 -3.5103086e-01   8.9171030e-02
 -1.1199209e-01   9.5149599e-02
 -2.1848865e-01   9.8403424e-02
  1.1746008e+00   8.0198444e-02
 -2.8258648e+00   7.9891950e-02
 -3.1895902e-02   7.7333853e-02
  2.0837125e-01   9.3020141e-02
  1.4654065e+00   5.4172985e-02
  6.8277681e-01   8.1878647e-02
  1.6665450e-01   6.3574225e-02
 -1.4409109e+00   6.5645278e-02
  7.0839715e-01   6.2074512e-02
 -1.6528786e+00   5.3797949e-02
 -1.2491893e+00   5.2283473e-02
  6.3684011e-01   8.7381870e-02
  2.4323025e+00   8.9793392e-02
  2.7528405e-01   9.4281867e-02
  9.7516477e-02   6.3429892e-02
 -2.0203652e+00   9.1724671e-02
  7.1501189e-01   8.9683354e-02
 -1.6881168e+00   6.3344687e-02
  2.1016943e+00   8.3885595e-02
 -1.7253470e+00   8.9380234e-02
 -1.3859624e+00   9.6529946e-02
 -1.0555257e+00   8.0412507e-02
 -1.0062392e+00   7.9655372e-02
  8.9574873e-01   9.5182203e-02
  2.3532343e+00   8.3025865e-02
 -3.5968331e-01   8.7533206e-02
 -2.2545972e+00   8.0904417e-02
 -5.5852610e-01   8.1759155e-02
 -2.1856539e-01   7.8621618e-02
  6.6633397e-01   9.4831049e-02
 -2.0441303e+00   8.5572504e-02
  1.1244609e+00   9.5996767e-02
  1.2402240e+00   8.0152601e-02
 -6.3345253e-01   8.3363093e-02
  1.6561093e+00   6.7043900e-02
 -8.2028580e-01   9.5360145e-02
 -1.0669876e+00   9.3484275e-02
  2.5990093e+00   8.6447805e-02
  1.8731396e+00   9.9259712e-02
 -1.3542538e+00   9.3703255e-02
  2.3061612e+00   9.2640609e-02
  1.8958263e+00   9.3495294e-02
 -1.1827877e+00   8.7931372e-02
 -4.2987865e-01   8.1110269e-02
 -5.0002253e-01   8.5350156e-02
  6.1577994e-01   9.0558857e-02
 -3.0794719e-01   8.0068432e-02
 -3.4170575e+00   9.0022534e-02
 -9.2687088e-01   9.0523593e-02
  1.8969842e+00   9.1429263e-02
  4.7207788e-01   9.2830844e-02
 -1.5851523e+00   7.5156912e-02
 -1.4423475e-01   9.5328212e-02
 -2.8499055e-01   9.6515298e-02
 -9.3721920e-01   9.1176361e-02
 -2.1868689e+00   6.3075557e-02
  1.3685395e+00   7.7443577e-02
 -9.9067086e-01   8.7443873e-02
 -1.8276201e+00   7.2557107e-02
 -2.7318379e-01   6.3485444e-02
  1.1827282e+00   8.8993974e-02
  6.5588415e-01   7.1932584e-02
  1.9897424e-01   7.7174850e-02
 -2.1473993e-01   9.4589613e-02
  1.3985965e+00   6.4848945e-02
  9.1252470e-01   6.8650842e-02
 -1.8856272e+00   9.9900171e-02
  2.9027963e+00   7.0427142e-02
  2.0945733e+00   9.9730909e-02
  2.1848387e-01   9.2170887e-02
  8.2528234e-01   5.9769195e-02
 -2.7769706e+00   9.6527494e-02
 -1.1849886e+00   9.4926342e-02
  5.8260930e-01   8.5203186e-02
  1.3623933e+00   9.9922441e-02
  1.1701628e+00   8.1123985e-02
 -4.8448738e-02   7.9662830e-02
 -1.9244617e+00   9.7734280e-02
 -5.1239783e-01   7.4443027e-02
 -2.7012517e+00   9.9596716e-02
 -3.5181975e-01   6.3689403e-02
  6.6948909e-01   9.5814824e-02
  1.4259856e+00   6.7429624e-02
  1.8572004e+00   7.4023195e-02
 -8.9916813e-01   8.1803299e-02
 -6.4997268e-01   8.6079247e-02
 -5.8846104e-01   1.0000000e-01
 -3.5250463e+00   9.5416330e-02
 -5.7321906e-01   8.3980322e-02
  1.3987696e+00   8.1600145e-02
  8.0017191e-01   8.3216779e-02
  1.8090043e+00   8.0146946e-02
 -6.1718678e-01   8.1907883e-02
 -6.3886344e-01   8.6360052e-02
 -1.6601159e-01   7.5320303e-02
 -5.1222567e-02   8.7445803e-02
 -6.5296426e-02   9.8197013e-02
  4.5137882e-01   9.2768468e-02
  1.0905737e-01   8.9112051e-02
  7.6889640e-01   9.7286165e-02
 -8.1123632e-01   9.1564767e-02
  2.6614696e-01   6.7434512e-02
  6.8369544e-01   8.8785894e-02
 -8.4144689e-02   6.6627704e-02
 -3.1048083e-01   8.0452494e-02
 -1.1098733e+00   7.1831845e-02
 -1.6957651e+00   7.2654717e-02
  1.3713771e+00   5.1850837e-02
 -2.2167115e-01   9.5131189e-02
 -3.1663471e-01   8.6937681e-02
 -8.7187397e-01   9.5753133e-02
  1.3626876e+00   5.7127122e-02
 -4.6268025e-01   9.2265740e-02
 -6.5541154e-01   8.1268527e-02
  1.6095452e+00   8.1505068e-02
  1.4206651e+00   9.4012514e-02
  2.1912732e+00   8.1401438e-02
  9.8856789e-01   5.8936197e-02
 -9.5037150e-01   9.8915063e-02
 -1.6268665e+00   9.9723488e-02
 -1.2335750e+00   9.8257676e-02
  4.7104865e-01   8.0682144e-02
  8.2876319e-01   9.4678655e-02
 -6.3767374e-01   5.5938967e-02
  1.2245774e+00   8.4569335e-02
 -4.3450278e-01   7.9817399e-02
  9.7249007e-01   6.6823803e-02
 -1.3888977e-01   8.5588828e-02
  7.9310369e-01   7.0859663e-02
  1.6321596e+00   7.1647748e-02
 -1.4589955e+00   8.8154748e-02
  1.6212372e+00   6.0765501e-02
 -3.3423275e-01   6.8688042e-02
  1.6732019e+00   9.0567164e-02
  1.2797366e+00   8.7682106e-02
  1.0013670e+00   7.9658635e-02
 -1.6599268e+00   8.6591184e-02
  1.3792299e+00   9.4811440e-02
  1.2466108e+00   8.4226206e-02
 -2.9336116e-01   7.2665028e-02
  4.6991146e-01   9.4235614e-02
  2.5595248e-01   9.5889956e-02
 -1.8730644e+00   9.7529225e-02
  2.6396317e+00   9.2675932e-02
 -1.1630937e+00   9.3952775e-02
 -2.4467885e+00   8.9435376e-02
 -9.1445446e-01   9.8822169e-02
 -2.3058755e+00   7.4384615e-02
 -2.3343363e+00   8.8071659e-02
 -4.4030488e-01   7.5801305e-02
  1.0148983e+00   9.3316674e-02
 -7.8511983e-02   7.3128574e-02
 -2.6620823e-01   9.6758366e-02
 -4.1042157e-02   8.1182770e-02
  7.9278845e-01   7.9508319e-02
 -2.7784681e-01   9.2451520e-02
 -1.2596961e+00   8.8367648e-02
  1.4992094e+00   8.5078143e-02
  4.9830255e-01   9.8039567e-02
  6.8680334e-01   9.9017888e-02
  1.3526777e+00   7.4183136e-02
 -2.0593393e+00   1.0000000e-01
  5.9920472e-01   8.5153371e-02
 -1.0645244e-03   9.9569932e-02
 -4.6822795e-01   8.8141732e-02
  2.5752401e+00   9.1780767e-02
  3.9651692e-01   8.9811437e-02
 -1.3762813e+00   9.6649542e-02
 -2.0008605e+00   8.8039525e-02
  3.2815900e+00   9.3281507e-02
  5.2442715e-02   9.1588117e-02
 -1.3163326e+00   9.4441690e-02
  1.1267451e+00   6.9146350e-02
 -1.3211234e+00   7.1382925e-02
 -8.5139558e-02   9.1396548e-02
 -1.1095870e+00   8.7947264e-02
 -1.0396665e+00   9.8564737e-02
 -9.4242938e-02   7.4426048e-02
 -3.8898022e+00   9.7500645e-02
 -1.0943474e+00   6.8232350e-02
  4.8637292e-01   8.1588261e-02
 -1.2358018e+00   6.7588001e-02
 -3.7223432e+00   8.5018180e-02
  1.3855028e+00   6.0442328e-02
 -1.8086106e+00   8.3087064e-02
 -7.7375978e-01   6.7451440e-02
  9.8328871e-01   7.2858214e-02
  1.3837104e+00   7.2838247e-02
 -2.9469097e-01   8.6890459e-02
  1.6043375e+00   7.5391151e-02
 -1.0534911e+00   7.8746915e-02
 -1.1929342e+00   9.0769112e-02
  1.0088081e+00   7.0326813e-02
 -1.5122709e+00   9.2811547e-02
  1.1391875e+00   7.5743794e-02
  6.6408682e-01   9.8883055e-02
  3.1793684e-01   8.0685653e-02
 -1.8183576e+00   9.9434085e-02
 -2.4503547e-01   5.6094497e-02
 -1.7175885e+00   8.6588345e-02
  4.0860406e-01   9.7169548e-02
 -1.7297742e+00   8.3595611e-02
 -9.4759279e-01   8.9713015e-02
  1.4686356e+00   7.2894938e-02
 -1.5156817e-01   8.1395626e-02
  3.9977765e-01   8.1354320e-02
  1.2156477e-01   8.8560209e-02
 -9.1999614e-01   6.6600323e-02
  8.9878774e-01   9.2790484e-02
  1.7242901e-01   7.8177199e-02
  1.3412242e+00   9.5754214e-02
  2.2655256e-01   9.9131599e-02
  1.7052495e+00   9.4708554e-02
 -1.5408777e+00   5.9706204e-02
  5.6239933e-01   8.7233178e-02
 -2.4734645e-01   8.2430013e-02
  3.5398215e-01   9.2065364e-02
  1.1385263e+00   6.9895536e-02
 -9.5021510e-01   7.0251085e-02
 -3.2135019e-01   6.9531597e-02
  1.2831990e+00   9.9966176e-02
  2.9780090e-01   7.5025722e-02
  1.3297100e+00   6.2655769e-02
  1.2826504e+00   8.3844759e-02
 -3.7370196e-01   5.9797257e-02
  3.7061390e-02   8.5983701e-02
 -8.5164565e-01   7.3019333e-02
  1.1511748e+00   8.7829031e-02
 -1.5561842e+00   9.3160219e-02
  6.0507900e-01   9.3292862e-02
 -1.1365689e+00   8.4055007e-02
 -8.2888687e-01   7.9773568e-02
 -1.4064283e+00   7.3114708e-02
  2.7061644e-01   7.7653624e-02
 -2.3800726e+00   9.3336120e-02
  2.9465920e-01   7.7957898e-02
  3.7915671e-01   8.4524445e-02
  2.1388061e+00   7.2548836e-02
 -2.5471849e+00   7.6714896e-02
  5.6205970e-01   8.7865107e-02
 -2.3376708e+00   9.1328137e-02
 -3.0745926e-01   8.3851524e-02
  2.3526564e+00   9.5454842e-02
 -2.2881870e+00   8.6266883e-02
 -9.2534661e-01   9.6712783e-02
 -1.3893237e+00   6.6353112e-02
 -1.2759635e+00   7.5027540e-02
 -1.3183069e+00   6.5529868e-02
  1.2952745e+00   6.8783715e-02
  8.6585414e-01   6.6973992e-02
  4.4016799e-01   9.3041845e-02
  1.2364950e+00   7.7153854e-02
 -1.9219805e+00   8.2761995e-02
 -1.0151368e+00   5.7242509e-02
 -1.0348789e-01   6.5884046e-02
 -7.5461954e-02   9.6251413e-02
  7.3286700e-01   8.3648570e-02
 -7.3972070e-01   7.3512889e-02
  3.2106805e+00   8.1062041e-02
  7.5649363e-01   8.6925291e-02
  3.4364057e-01   7.6958984e-02
  9.7302496e-01   9.3813732e-02
 -1.5866048e+00   8.8572606e-02
  4.8720250e-01   8.3071075e-02
 -1.1155239e+00   9.0293601e-02
 -1.3893183e+00   9.6563682e-02