16
Lattice="8.512968 0.0 0.0 0.0 4.256484 0.0 0.0 0.0 4.256484" Properties=species:S:1:pos:R:3:force:R:3 T=T Energy=-81.7685607 Virial="0.10739 0.0 0.0 0.0 3.40416 0.0 0.0 0.0 2.41721" pbc="T T T"
Co       8.36453000       4.18277000       0.14279000       1.62787000       0.18740100      -1.72353800
Co       2.14852000       2.05237000       0.11215000      -0.42119300      -1.05541800      -0.70414000
Co       4.27559000       2.23095000       2.15018000       0.08729700      -0.83540300      -0.28833000
Cu       6.29592000       0.20785000       2.01372000       0.73087500      -1.04445100       1.53926500
Mg       4.26937000       4.08164000       4.13767000      -0.06715000       1.20610400       0.75019800
Ni       0.10601000       2.18528000       1.89694000      -0.58433700      -0.42524900       1.62200900
Ni       2.10799000       4.18110000       2.11029000      -0.37567900       0.44327100       0.62501800
O        0.00100000       0.05062000       2.13708000       0.26595200      -0.30454100      -0.04135200
O        0.02341000       2.04276000       3.98302000      -0.27982000       0.16092000       1.63991800
O        2.02909000       3.99301000       0.08723000       0.60869600       1.73391400      -0.35437100
O        2.13180000       2.06686000       2.25781000       0.24442200      -0.04673700      -0.83468700
O        4.15341000       0.09846000       2.07844000       0.38561400      -0.80598300       0.11213800
O        4.27018000       2.02520000       4.25337000       0.32874800       0.33353600       0.03511200
O        6.43749000       4.22485000       0.07840000      -1.68076100       0.25387000      -1.04908500
O        6.48772000       2.20913000       2.15101000      -0.77592700       0.26727100      -0.26369300
Zn       6.48873000       2.12705000       0.12956000      -0.09460900      -0.06850500      -1.06446200
16
Lattice="8.512968 0.0 0.0 0.0 4.256484 0.0 0.0 0.0 4.256484" Properties=species:S:1:pos:R:3:force:R:3 T=T Energy=-79.0322759 Virial="0.13659 0.0 0.0 0.0 1.67726 0.0 0.0 0.0 0.72281" pbc="T T T"
Co       8.43746000       2.16741000       1.94295000       0.22523400      -0.00721800       0.63789900
Co       2.20857000       4.24817000       2.14210000       0.14402900      -0.56357800      -0.59652500
Cu       4.31516000       2.17409000       2.38147000      -1.06068900      -0.03941700      -1.40278500
Mg       2.09863000       2.13450000       0.00673000       0.11141000      -0.06863400      -0.16514000
Ni       8.49209000       0.00783000       4.20524000      -0.17518000      -0.05023600      -0.26489700
Ni       6.22762000       1.99248000       4.11920000       0.65278600       0.52753100       1.37109900
O        8.47072000       0.12345000       2.07022000       0.39603500      -0.81051600      -0.26721500
O        8.36292000       2.14003000       4.09406000       0.58051900      -0.15150800       0.56178700
O        2.07299000       0.00380000       4.11590000      -0.20695700      -0.20971600       1.24340300
O        2.21207000       1.99702000       2.13170000      -0.57693200       1.42965300       0.06421300
O        4.40661000       0.03849000       2.11356000      -0.96380800      -0.14055000       1.01390600
O        4.15077000       2.19071000       0.27076000       0.80506100      -0.26015300      -1.34768800
O        6.39607000       4.02470000       4.23647000       0.12552100       1.20928000       0.01956400
O        6.24608000       2.07366000       2.15171000       0.99170100      -0.07233900      -0.53673200
Zn       4.34003000       0.14887000       0.09642000      -0.29411800      -0.73984100      -0.09700000
Zn       6.47094000       4.19122000       2.13096000      -0.75461200      -0.05276000      -0.23388900
16
Lattice="8.512968 0.0 0.0 0.0 4.256484 0.0 0.0 0.0 4.256484" Properties=species:S:1:pos:R:3:force:R:3 T=T Energy=-82.396614 Virial="0.7832 0.0 0.0 0.0 2.15363 0.0 0.0 0.0 2.63875" pbc="T T T"
Co       2.10307000       0.22394000       2.31421000       0.35275800      -1.10973500      -1.35851900
Co       4.23826000       2.13430000       2.11469000       0.49185500       0.43862700      -0.08661800
Co       6.47762000       4.12603000       2.22279000      -0.66093000      -0.65459100      -0.97194900
Cu       6.30058000       2.03296000       4.14590000       0.71944300       0.15550200       0.61664300
Mg       0.05716000       0.03497000       4.24888000      -0.62643700      -0.58438800      -0.20266200
Ni       8.51294000       2.01513000       2.05811000      -0.29439800       0.71557800       0.12009800
Ni       2.18215000       2.22577000       0.08591000      -0.28270500      -0.16234200      -0.14164900
O        0.05166000       4.17925000       2.02860000      -0.36916500       0.20015900       0.67853200
O        0.03500000       2.12982000       4.17734000       0.00140500      -0.21555500       0.20941800
O        2.15428000       0.00234000       0.00783000      -0.09176400       0.48456500       0.86629300
O        2.11102000       2.23642000       2.22534000      -0.06249200      -0.08527300      -0.50190900
O        4.23579000       0.08634000       2.15597000      -0.08174700      -0.69616700      -0.31702900
O        4.31552000       2.19917000       0.02025000      -0.92221100      -0.26587200      -0.19528200
O        6.33625000       4.18413000       4.23976000       0.44233100      -0.25322000       0.12892700
O        6.34079000       1.81639000       2.02132000       0.69660000       2.17293100       0.27661100
Zn       4.21390000       0.05088000       4.14859000       0.68745800      -0.14022000       0.87909400
16
Lattice="8.512968 0.0 0.0 0.0 4.256484 0.0 0.0 0.0 4.256484" Properties=species:S:1:pos:R:3:force:R:3 T=T Energy=-74.8156194 Virial="0.72119 0.0 0.0 0.0 2.1477 0.0 0.0 0.0 1.7122" pbc="T T T"
Co       0.01921000       2.12234000       2.24018000      -0.65726200      -0.01291900      -0.22868800
Co       1.98241000       2.25062000       0.15395000      -0.19282600      -0.00619100       0.00388000
Cu       8.45485000       0.04891000       4.20378000       0.07830000       0.23251300       0.42671900
Cu       2.28580000       0.13845000       2.14291000      -1.07396800      -1.02350300       1.21518600
Cu       6.71384000       4.13885000       2.06326000      -1.91710000       0.41875600      -0.81082400
Mg       4.12037000       1.81422000       2.12646000       1.07128600       1.75804500      -0.31356300
Ni       6.13689000       2.29711000       3.94546000       1.18391900      -2.13883300       1.07839100
O        0.23845000       0.01421000       2.01403000      -1.26137100       0.14749500       1.13881600
O        8.30171000       2.25696000       0.23256000       1.10249900      -0.42411500      -2.29860900
O        2.07109000       0.15519000       0.20206000       0.41249400      -0.62102700      -1.16914700
O        2.03855000       2.19966000       2.38113000       0.79885800      -0.01987200      -1.29634800
O        4.53227000       4.13263000       2.09036000      -1.33415100      -0.59100800       0.27622900
O        4.06953000       2.02072000       4.15759000       0.70742800       0.23616400       0.86371100
O        6.24915000       4.18412000       4.14887000       1.46858200       1.05693100      -0.11458700
O        6.41229000       1.96225000       1.80047000      -0.19196900       0.53470200       2.01181600
Zn       4.26115000       4.07338000       0.14006000      -0.19471700       0.45286200      -0.78298100
16
Lattice="8.512968 0.0 0.0 0.0 4.256484 0.0 0.0 0.0 4.256484" Properties=species:S:1:pos:R:3:force:R:3 T=T Energy=-75.7918748 Virial="3.28203 0.0 0.0 0.0 5.48837 0.0 0.0 0.0 6.78742" pbc="T T T"
Co       8.48405000       0.34410000       0.11148000       0.19101500      -3.43853600      -0.25825800
Co       6.31771000       4.24752000       1.99328000      -0.93947300       0.18730800       0.78672900
Cu       4.41984000       4.25644000       3.88119000      -1.85873600       0.50449900       1.34935900
Mg       6.54390000       2.25897000       0.00019000      -2.19485600      -0.01307700       0.02192800
Ni       4.36298000       2.16156000       2.30182000      -0.59021100      -0.33003400      -2.54849700
O        8.25845000       4.05076000       2.31024000       2.02925800       1.36696800      -0.79455300
O        8.50597000       2.21405000       0.00665000       0.60947700       0.87947100       0.73717700
O        2.30683000       0.13643000       0.02498000      -1.55900000      -1.26917600      -0.79369000
O        2.02283000       2.00245000       2.17259000      -0.19761900       0.59957200       0.38527800
O        4.27797000       4.19919000       1.66815000      -0.13445100       0.11111200       2.52817700
O        4.31155000       2.19981000       4.17024000      -0.03113800      -0.23032500       0.52811300
O        6.27025000       0.11684000       0.00462000       2.01391500      -0.09160400      -0.91361500
O        6.40382000       2.14132000       2.12340000       0.22593000      -0.23038100       0.02221500
Zn       8.47435000       1.93923000       2.26975000       0.07912000       1.00203300      -0.43561700
Zn       2.00425000       4.11488000       2.06324000       1.07792100       0.20155900       0.55454000
Zn       2.11447000       2.06976000       0.22415000       1.27885000       0.75061000      -1.16928400
16
Lattice="8.512968 0.0 0.0 0.0 4.256484 0.0 0.0 0.0 4.256484" Properties=species:S:1:pos:R:3:force:R:3 T=T Energy=-75.6763522 Virial="4.50352 0.0 0.0 0.0 3.01115 0.0 0.0 0.0 0.42511" pbc="T T T"
Co       8.40214000       4.12834000       0.17826000       1.19449200       0.81139100      -0.52399200
Co       6.34813000       2.22135000       0.11024000       0.45690500      -0.66605100      -0.22022500
Cu       8.47799000       2.16779000       2.35946000       0.54657200      -0.73006100      -1.48008400
Cu       2.06358000       4.17624000       2.00058000       0.69080600      -0.56112200       0.09272800
Mg       2.22798000       1.99708000       4.18753000      -0.40439800      -0.84740000       0.28009400
Ni       4.37562000       0.20745000       3.90996000      -0.65118100      -1.39541900       1.12852900
O        8.43610000       4.20590000       2.27957000       0.03581100       0.50426200      -0.27099700
O        8.43080000       2.09410000       0.00371000       0.65362800      -0.54717400       1.27362700
O        2.10772000       3.89129000       4.12253000      -0.17826700       3.63101600      -0.10240000
O        2.27498000       2.08409000       2.03937000      -0.66623500      -0.57445000       0.39630200
O        4.20968000       0.04475000       1.57665000       0.29742600       0.40883400       3.04196000
O        4.34353000       2.32039000       0.04832000      -0.26062400      -1.25046600      -1.80918600
O        6.36971000       4.25481000       0.12355000      -0.13805600       0.74702200      -1.01963500
O        6.46787000       2.16483000       2.19635000      -1.15073500      -0.15566500       0.18528600
Zn       4.34552000       2.06416000       2.15980000      -0.58190000       0.72110400      -0.91398100
Zn       6.36290000       0.05213000       2.16553000       0.15575600      -0.09582100      -0.05802900
16
Lattice="8.512968 0.0 0.0 0.0 4.256484 0.0 0.0 0.0 4.256484" Properties=species:S:1:pos:R:3:force:R:3 T=T Energy=-73.4540035 Virial="0.4951 0.0 0.0 0.0 -0.39044 0.0 0.0 0.0 -2.4065" pbc="T T T"
Co       6.33248000       2.24072000       0.09652000       0.28762600      -0.40498800      -0.47888800
Cu       8.43898000       1.87959000       2.09315000       0.18118900       0.62421300       0.94467200
Cu       2.00911000       2.38412000       4.20977000       0.70951900      -1.56870300       0.23559900
Cu       6.53792000       0.01902000       1.93001000      -1.23624700      -0.11862800       1.39052000
Mg       2.15666000       4.22385000       2.10319000      -0.03339500       0.83298300       0.27907600
Ni       4.16135000       2.09357000       2.14250000       1.19946700       0.14662900       0.35736900
O        8.47898000       3.95025000       2.17480000       0.69984600       1.15193000      -0.37016100
O        8.40328000       2.06367000       0.08493000       0.26881800      -0.38517500      -0.41365300
O        2.10583000       0.15462000       0.01740000       0.08692200      -0.00288200      -0.40919900
O        2.17236000       2.20796000       2.08743000      -0.21073700      -0.60590600       0.25015700
O        4.40098000       4.13716000       2.13111000      -0.75388600       1.20273400      -0.06313000
O        4.27702000       2.28469000       0.10279000      -0.04039200      -1.01139400      -0.51629500
O        6.45604000       0.12558000       4.04332000      -0.10952100      -0.39761300       1.32024900
O        6.36355000       2.17585000       2.28918000      -0.59099600      -0.35885000      -1.41039300
Zn       0.04262000       4.11907000       0.10875000      -0.48239600       0.55104500      -0.76726200
Zn       4.35179000       0.03570000       0.03341000       0.02418200       0.34460700      -0.34866100
16
Lattice="8.512968 0.0 0.0 0.0 4.256484 0.0 0.0 0.0 4.256484" Properties=species:S:1:pos:R:3:force:R:3 T=T Energy=-77.8721459 Virial="4.88575 0.0 0.0 0.0 8.828 0.0 0.0 0.0 4.73057" pbc="T T T"
Co       0.08784000       2.34683000       2.08874000      -0.31669000      -1.23684200       1.05536900
Co       2.36771000       4.07143000       2.21480000      -2.64952600       1.73000100      -0.02612300
Cu       6.39638000       0.13823000       1.90186000       0.62876400      -1.67478900       0.65404500
Mg       4.30805000       2.21548000       2.04976000      -0.16812900       1.01560500       0.20339400
Mg       6.19308000       1.85709000       4.04835000       1.65573500       0.93465800       0.31490000
Ni       8.43797000       3.94142000       0.14369000       0.07151800       2.62338100      -0.89338400
O        0.14053000       0.31046000       2.25604000      -0.02778300      -2.47627400      -0.28850000
O        8.35284000       1.98041000       0.13903000       1.11767400       0.15371800      -1.26100400
O        2.17376000       3.95636000       0.01492000      -0.52094100       4.54260500       0.42201700
O        2.28211000       2.09010000       2.14653000      -1.38299400       0.02830200      -0.08025000
O        4.18894000       0.30886000       2.16977000       1.77079500      -2.26815300      -0.30401300
O        4.01885000       2.24094000       4.21002000       2.52616800      -0.98751000       0.21987800
O        6.35773000       3.92407000       4.10861000      -0.41640600       1.91607400       0.00966600
O        6.49387000       2.08140000       1.92142000      -1.75468500       0.56670600       0.86516900
Zn       1.95758000       2.23776000       0.04227000       0.02089900      -4.25534600      -0.11640100
Zn       4.25078000       0.10974000       0.12749000      -0.55439800      -0.61213600      -0.77476200
64
Lattice="8.512968 0.0 0.0 0.0 8.512968 0.0 0.0 0.0 8.512968" Properties=species:S:1:pos:R:3:force:R:3 Energy=-356.200348 Virial="59.424 -2.35827 1.71123 -2.35827 42.71665 -2.04113 1.71123 -2.04113 55.56605" pbc="T T T"
Co       0.20819000       0.08383000       0.17090000      -4.33092500      -0.38163700      -2.51610600
Co       0.00053000       2.02175000       2.40577000       0.64557700       2.14449700      -2.47545000
Co       2.08338000       0.12889000       2.02552000       3.10408700      -0.98820900       2.20485200
Co       2.08581000       2.06488000       0.05791000       0.51659400       1.45724100      -0.31899300
Co       8.37879000       8.41480000       4.30568000       0.55470300      -0.47253000       0.57894600
Co       8.38479000       2.14885000       6.24637000       0.32620300      -0.29302000       2.38111200
Co       2.30390000       0.03581000       6.30014000      -1.27842900       0.16757200       0.98066600
Co       1.96568000       2.14768000       4.35454000       1.71644000       0.43442800      -0.29650200
Co       0.02571000       4.17501000       0.05369000      -0.20059700       0.53816300      -0.48759300
Co       8.38229000       6.26952000       2.28182000       0.45430800       0.69431900      -3.30098000
Co       2.11529000       4.33830000       2.26958000       0.62813200      -0.02851600      -0.22571200
Co       1.84413000       6.49049000       8.37265000       0.91248900      -1.07615500       0.77917000
Co       8.42832000       4.38666000       4.24528000       0.77772900      -1.81921300       0.97816100
Co       0.09283000       6.41493000       6.39990000      -2.66145500       2.54571200       0.24915400
Co       2.15650000       4.31157000       6.49627000      -1.46279600      -0.46727700      -2.58078500
Co       2.13913000       6.60254000       4.27398000      -0.02360700      -2.50848500       0.09687900
Co       4.20202000       8.43199000       0.03546000       0.91444100       0.27636400      -0.00776900
Co       4.45322000       2.26747000       2.13853000      -2.34836500      -0.94957300       0.52211400
Co       6.25868000       8.49397000       2.06670000       2.09532300       1.05142900       0.00446100
Co       6.43478000       2.17036000       0.15618000      -0.09813000      -0.77859700      -1.21363700
Co       4.32756000       8.32430000       4.28011000      -0.03583300       1.94340800      -0.05519500
Co       4.23641000       1.98838000       6.25470000       0.69304500       0.44411000       1.56604100
Co       6.34804000       0.10977000       6.60304000       1.26954200      -1.64503600      -1.78393400
Co       6.65009000       2.03742000       4.06319000      -5.01148000      -0.35426600       5.64316500
Co       4.23066000       4.26288000       8.26302000       0.35480200       0.17304400       4.44390600
Co       4.34577000       6.43365000       2.06706000      -0.99421200      -0.56419300      -0.15776400
Co       6.22090000       4.16580000       2.16974000       1.88389400       1.12549100      -0.85244100
Co       6.51876000       6.37252000       0.10398000      -6.66831600       0.22275500      -0.78619600
Co       4.48045000       4.36643000       4.35156000      -3.33094400      -0.77039800      -0.04586800
Co       4.37554000       6.28499000       6.42275000      -0.36290200       0.72456500      -0.12309100
Co       6.27109000       4.20778000       6.48178000       1.04097700      -0.10580100      -2.73447100
Co       6.41705000       6.31915000       4.42089000      -0.08833800       0.11613300      -0.44089700
O        2.03725000       0.02601000       0.10175000       2.78580700      -0.21045100      -1.52191800
O        2.09188000       2.21988000       2.26167000       0.77081000       0.49765300      -0.12351000
O        0.26442000       0.21000000       2.08904000      -2.77189500      -2.06984100       2.17011900
O        8.43277000       2.11463000       8.51218000       0.87600400       0.18464400      -0.00432400
O        2.21455000       8.50724000       4.33512000      -0.58010700       1.11671700      -0.46002300
O        2.17427000       2.13978000       6.42185000      -1.04101600      -0.82949400      -0.26280900
O        8.45577000       0.00234000       6.55917000       1.01679900      -0.17143000      -1.26752100
O        8.40820000       1.99545000       4.31354000       3.64979200       0.26721600       0.80672600
O        2.21832000       4.18699000       8.36625000      -1.41013300       0.24071700       2.74522100
O        2.29970000       6.45229000       2.34149000      -1.01319400      -0.51721000      -1.82315400
O        8.43480000       4.21918000       2.13964000      -0.16602200      -0.31063800      -0.03917400
O        8.16358000       6.26454000       8.48987000       8.46179700       0.03774400       0.99034100
O        2.04342000       4.36479000       4.37866000       0.47842300      -0.38564500      -0.50075100
O        1.95138000       6.35573000       6.34588000       2.74125100       1.63355100       0.39062200
O        0.04120000       4.60692000       6.30545000      -0.95327900      -3.99912600       0.31872500
O        8.45955000       6.24724000       4.09307000      -0.09325300       2.66038400       1.92321400
O        6.49910000       8.42552000       8.45987000      -0.12356700       1.36499100       2.89983600
O        6.42916000       2.10113000       2.35186000      -0.43141700      -0.05983600      -5.14833300
O        4.39988000       8.44089000       2.16989000      -2.57584100       1.40333700      -0.46199600
O        4.40863000       2.16652000       0.03564000      -0.91980800      -0.95040800       0.24525800
O        6.34011000       8.32366000       4.32427000       1.27374000       0.92679800      -0.50307900
O        6.37158000       1.99293000       6.32671000       0.55780300       2.14401000       0.03775300
O        4.42195000       8.37340000       6.48018000      -2.04372500       0.54091100      -0.31084200
O        4.40654000       2.09896000       4.40199000      -0.73716100       0.09382200      -2.27418400
O        6.41115000       4.21226000       8.27502000       0.05583800      -0.35858700       3.12638400
O        6.31922000       6.59677000       2.06213000       0.99833200      -2.57952900       0.95749000
O        4.32116000       4.34016000       2.13134000      -0.88201700      -0.44752200      -0.27149600
O        4.29725000       6.39874000       8.45057000      -0.76370300      -0.01253300       0.10517700
O        6.28639000       4.05817000       4.19132000       2.31188500       1.30997900       0.87058100
O        6.40433000       6.46883000       6.46764000      -0.04453400      -1.06130900      -0.61529100
O        4.08398000       4.17500000       6.48719000       1.80790400       0.00418500      -3.56085300
O        4.37526000       6.39938000       4.14554000      -0.22747000      -1.31942500       1.53656900
16
Lattice="8.512968 0.0 0.0 0.0 4.256484 0.0 0.0 0.0 4.256484" Properties=species:S:1:pos:R:3:force:R:3 T=T Energy=-75.7634164 Virial="2.09163 0.0 0.0 0.0 -0.48796 0.0 0.0 0.0 1.36218" pbc="T T T"
Co       0.00108000       0.06005000       0.12066000       0.06194500      -0.03438200      -3.09096200
Co       6.39750000       2.21703000       4.21327000      -0.37915000      -1.61180200       0.03772900
Cu       8.45249000       2.21267000       1.87724000       0.77591500      -0.66351900       0.59271600
Cu       4.27441000       4.13315000       0.04603000      -0.69788700       0.42976500      -0.78542500
Cu       6.47211000       4.06793000       2.19252000      -0.74536200       1.24870500      -0.86478700
Mg       4.23149000       2.12375000       2.10532000       0.94322300      -0.96139700      -0.35913100
Ni       2.14862000       2.24546000       4.21164000       0.05491700      -0.94978200       0.35974100
O        0.07269000       0.01260000       1.90105000      -0.48982000       0.18618600       3.07567200
O        0.00968000       2.10078000       3.99675000       0.33288700       0.55154300       0.50437500
O        2.19676000       4.22024000       0.18759000      -0.38441400       0.93440500      -1.23973800
O        2.32991000       2.36444000       2.07395000      -2.23240600      -1.62963800       0.50306800
O        4.14692000       4.14986000       2.01568000       1.41719400       0.92410200       1.09547300
O        4.18812000       1.93482000       4.15791000       0.61291400       0.85096800       0.76280900
O        6.30755000       4.15461000       4.15716000       0.45953500       0.91066000       0.87687300
O        6.38115000       2.06397000       2.12985000      -0.45841800      -0.51378200      -0.47179400
Zn       2.04021000       0.05214000       2.40606000       0.72892700       0.32796800      -0.99661900
16
Lattice="8.512968 0.0 0.0 0.0 4.256484 0.0 0.0 0.0 4.256484" Properties=species:S:1:pos:R:3:force:R:3 T=T Energy=-75.9782796 Virial="4.71638 0.0 0.0 0.0 1.31307 0.0 0.0 0.0 3.61557" pbc="T T T"
Co       6.32226000       2.12528000       0.11113000      -0.05286900       0.83176400       0.31787000
Cu       2.28860000       4.05373000       1.71999000      -1.02623400       0.44309700       1.59003800
Mg       8.38669000       4.24968000       0.03461000       0.37050200      -1.32809200       1.03554100
Mg       2.28622000       2.02036000       4.16215000      -2.49877800       0.23980200       0.08207500
Ni       3.99854000       0.14686000       4.00991000       1.53802200      -1.01741100       1.90960700
O        0.06726000       0.04846000       2.35324000      -1.59624400      -1.10055100      -2.16361100
O        8.41062000       1.89303000       0.15269000       0.46996600       2.58858900      -0.10528000
O        1.90252000       4.12997000       3.96242000       2.32733700      -0.14246700       1.00625400
O        2.12114000       1.88129000       2.01064000       0.91411200       0.94646800      -0.19106300
O        4.43956000       0.12965000       2.14842000      -0.87697100      -0.35097800      -0.47975100
O        4.21990000       2.27777000       0.11727000      -0.24457500      -0.29436300      -0.67484400
O        6.13228000       0.16171000       0.05342000       0.97839900      -0.86113400       0.15713200
O        6.44072000       2.29053000       2.27513000      -0.36026300      -0.32496100      -0.31071600
Zn       0.07058000       2.06690000       2.24572000      -0.02628000       0.33053300      -0.21446800
Zn       4.27753000       2.15388000       2.32590000       0.55938400       0.45114900      -1.39537600
Zn       6.49111000       0.13572000       2.27896000      -0.47550800      -0.41144200      -0.56340800
64
Lattice="8.512968 0.0 0.0 0.0 8.512968 0.0 0.0 0.0 8.512968" Properties=species:S:1:pos:R:3:force:R:3 Energy=-315.0085465 Virial="2.26849 -0.77999 0.43417 -0.77999 9.40688 -2.00898 0.43417 -2.00898 7.48444" pbc="T T T"
Ni       8.43125000       8.49891000       0.01867000       1.02284300      -0.07088600       0.68982200
Ni       0.06685000       2.23578000       1.86120000      -0.02775200      -1.84040000       6.75141500
Ni       2.18439000       0.03887000       2.12931000      -1.09464600      -0.19036400       1.17056500
Ni       2.26608000       2.42592000       8.49344000      -0.71541900      -2.37524600       0.18430900
Ni       0.07236000       0.03840000       4.20711000      -0.35335000       0.36920700       0.15714000
Ni       8.46873000       1.91207000       6.33081000       0.07859000       1.32155400      -0.03645600
Ni       2.17357000       8.50588000       6.47751000      -0.37327400      -0.62722000      -0.09342000
Ni       2.14775000       2.24651000       4.10451000      -0.89636100      -0.47001900       1.15415000
Ni       8.48722000       4.18055000       8.45133000       0.64236700       1.02339200      -0.24500000
Ni       8.44811000       6.41924000       2.06360000       0.92771500       0.54335000      -0.37285300
Ni       2.05768000       4.31989000       1.98269000       1.61756900       0.32381100       0.98191300
Ni       2.15526000       6.28595000       0.16075000       0.90362500       3.05206200      -1.03094400
Ni       8.50911000       4.26812000       4.14710000      -0.01612100      -0.50835000       0.93886500
Ni       0.02844000       6.31576000       6.38525000       0.60789700       0.70607800       0.25777100
Ni       2.03001000       4.20417000       6.39835000       1.55745600       1.34686900      -0.76731200
Ni       2.19040000       6.35216000       4.08676000      -0.58089400       1.06887000       0.85727300
Ni       4.24600000       0.00473000       8.49564000      -0.57020000       0.26783200      -0.04152100
Ni       4.11002000       2.06435000       2.12157000       0.78671500       0.39902200      -0.22241700
Ni       6.42421000       0.01587000       2.13721000       0.40510500       0.34259100      -0.16528700
Ni       6.50518000       2.16583000       0.09685000      -1.07671400      -0.80955200      -1.73685200
Ni       4.29402000       0.01229000       4.40213000      -0.55059200      -0.50947600      -0.69064400
Ni       4.21000000       2.15357000       6.20168000       0.52631500      -0.81858200       3.11837800
Ni       6.34136000       8.48672000       6.35822000       2.31113600       0.45143800       0.47145600
Ni       6.22480000       2.10826000       4.23190000       2.69211000       0.34868700       0.45389600
Ni       4.30962000       4.10546000       0.00153000      -0.23925100       0.83708700       0.65488000
Ni       4.49541000       6.70521000       2.25658000      -2.81505900      -3.99912500      -0.77823100
Ni       6.48049000       4.11257000       2.03931000      -1.05568500       2.97417800       0.43888000
Ni       6.37168000       6.38134000       8.42460000      -0.09307300       0.55967700       1.00234300
Ni       4.31621000       4.18995000       4.39698000      -0.59797200       1.12067000      -2.42141500
Ni       4.34351000       6.17630000       6.36917000      -1.74012100       2.84750700       0.19813800
Ni       6.10525000       4.49110000       6.52955000       3.34826300      -2.51505700      -1.62556900
Ni       6.55358000       6.47510000       4.13915000      -0.96634200      -0.33284200       0.61833400
O        2.05278000       0.24561000       0.29941000       0.40529300       0.02002300      -3.67271000
O        2.06388000       2.15964000       2.15894000       0.75093700       0.62988700      -0.41196300
O        0.10345000       0.00378000       2.21523000      -1.53720900       0.23187800      -1.40705100
O        0.05859000       2.13906000       0.19023000      -0.35883900      -0.01495300      -6.22248800
O        1.99714000       8.43331000       4.17606000       1.88527000       1.00208400       1.45287900
O        2.08882000       2.23172000       6.41811000       0.51213600      -1.27281700      -0.28788200